ITEM: TIMESTEP
0
ITEM: NUMBER OF ATOMS
319
ITEM: BOX BOUNDS pp pp pp
-23.520000457763672 -8.520000457763672
1.340000033378601 16.34000015258789
-2.5199999809265137 12.479999542236328
ITEM: ATOMS id type xu yu zu
1 1    3.010   17.840    7.170
2 1    2.670   18.090    8.090
3 1    3.940   18.240    7.050
4 1    2.860   16.860    7.020
5 1    2.170   18.510    6.180
6 1    2.790   19.170    5.570
7 1    1.490   17.490    5.270
8 1    0.900   16.830    5.900
9 1    0.830   18.040    4.600
10 1    2.470   16.660    4.450
11 1    3.320   16.400    5.090
12 1    1.960   15.750    4.140
13 1    2.980   17.410    3.230
14 1    4.200   17.670    3.150
15 1    2.150   17.720    2.350
16 1    1.130   19.410    6.860
17 1    0.370   18.960    7.720
18 1    1.130   20.670    6.440
19 1    1.770   20.970    5.720
20 1    0.270   21.680    7.060
21 1    0.640   21.840    8.070
22 1    0.350   22.990    6.290
23 1   -0.020   22.840    5.280
24 1   -0.250   23.740    6.800
25 1    1.390   23.330    6.260
26 1   -1.180   21.220    7.160
27 1   -1.780   21.460    8.210
28 1   -1.710   20.590    6.140
29 1   -1.050   20.400    5.400
30 1   -3.080   20.170    5.960
31 1   -3.760   20.630    6.680
32 1   -3.480   20.640    4.550
33 1   -3.230   21.690    4.490
34 1   -2.860   20.080    3.850
35 1   -4.930   20.440    4.210
36 1   -5.190   20.210    3.010
37 1   -5.770   20.520    5.130
38 1   -3.270   18.660    6.080
39 1   -4.300   18.060    5.760
40 1   -2.200   18.010    6.580
41 1   -1.340   18.480    6.840
42 1   -2.280   16.570    6.730
43 1   -2.420   16.110    5.750
44 1   -1.000   16.010    7.360
45 1   -1.060   14.920    7.330
46 1   -0.150   16.340    6.760
47 1   -0.610   16.430    9.050
48 1   -3.450   16.100    7.590
49 1   -3.820   16.800    8.520
50 1   -3.910   14.900    7.270
51 1   -3.640   14.410    6.430
52 1   -4.860   14.250    8.170
53 1   -4.910   13.200    7.880
54 1   -4.460   14.340    9.180
55 1   -6.250   14.840    8.140
56 1   -7.070   14.380    8.950
57 1   -6.520   15.750    7.220
58 1   -5.780   16.070    6.620
59 1   -7.840   16.350    7.050
60 1   -8.510   15.960    7.820
61 1   -7.790   17.870    7.180
62 1   -7.120   18.190    6.370
63 1   -8.790   18.260    6.990
64 1   -7.270   18.410    8.500
65 1   -6.340   17.900    8.770
66 1   -7.010   19.910    8.360
67 1   -7.940   20.420    8.100
68 1   -6.640   20.310    9.310
69 1   -6.270   20.080    7.590
70 1   -8.230   18.160    9.650
71 1   -8.400   17.090    9.770
72 1   -7.810   18.560   10.570
73 1   -9.190   18.650    9.440
74 1   -8.380   15.930    5.700
75 1   -7.910   16.310    4.630
76 1   -9.400   15.080    5.710
77 1   -9.900   14.790    6.540
78 1   -9.790   14.500    4.430
79 1   -8.920   14.320    3.810
80 1  -10.480   13.170    4.680
81 1  -11.420   13.420    5.180
82 1  -10.700   12.760    3.690
83 1   -9.730   12.150    5.500
84 1   -8.890   11.820    4.880
85 1   -9.350   12.670    6.370
86 1  -10.520   10.940    5.940
87 1  -11.080   10.520    5.090
88 1   -9.860   10.170    6.340
89 1  -11.480   11.320    6.990
90 1  -11.470   12.270    7.350
91 1  -12.380   10.480    7.460
92 1  -12.490    9.220    7.070
93 1  -11.860    8.860    6.360
94 1  -13.200    8.630    7.470
95 1  -13.220   10.910    8.420
96 1  -13.160   11.860    8.750
97 1  -13.920   10.280    8.790
98 1  -10.720   15.410    3.630
99 1  -11.680   15.870    4.240
100 1  -10.440   15.600    2.360
101 1   -9.270   15.130    1.570
102 1   -9.400   14.090    1.260
103 1   -8.350   15.230    2.140
104 1   -9.340   16.100    0.380
105 1   -8.840   15.680   -0.490
106 1   -8.880   17.050    0.640
107 1  -10.810   16.260    0.140
108 1  -11.230   15.350   -0.290
109 1  -11.080   17.120   -0.480
110 1  -11.340   16.460    1.560
111 1  -11.230   17.480    1.920
112 1  -12.790   16.050    1.680
113 1  -13.640   16.980    1.700
114 1  -13.190   14.810    1.730
115 1  -12.490   14.080    1.780
116 1  -14.590   14.420    1.610
117 1  -15.140   15.230    1.150
118 1  -14.760   13.160    0.760
119 1  -13.720   12.830    0.750
120 1  -15.350   12.470    1.360
121 1  -15.300   13.180   -0.660
122 1  -16.350   12.890   -0.590
123 1  -15.180   14.500   -1.410
124 1  -14.130   14.780   -1.490
125 1  -15.600   14.390   -2.410
126 1  -15.730   15.270   -0.870
127 1  -14.660   12.060   -1.510
128 1  -14.880   11.090   -1.060
129 1  -15.060   12.100   -2.520
130 1  -13.580   12.210   -1.550
131 1  -15.210   14.270    2.990
132 1  -16.370   13.930    3.130
133 1  -14.430   14.580    4.060
134 1  -13.470   14.860    3.940
135 1  -14.930   14.390    5.410
136 1  -16.020   14.370    5.390
137 1  -14.420   13.050    6.040
138 1  -13.350   12.890    5.900
139 1  -14.660   12.990    7.100
140 1  -15.130   11.880    5.360
141 1  -16.390   11.470    5.690
142 1  -16.890   11.960    6.520
143 1  -17.020   10.440    5.000
144 1  -18.030   10.140    5.270
145 1  -16.360    9.790    3.950
146 1  -16.850    8.980    3.400
147 1  -15.080   10.200    3.600
148 1  -14.560    9.720    2.770
149 1  -14.460   11.210    4.320
150 1  -13.440   11.500    4.080
151 1  -14.590   15.590    6.250
152 1  -15.400   16.540    6.250
153 1  -13.460   15.640    6.950
154 1  -12.800   14.880    6.940
155 1  -13.160   16.810    7.800
156 1  -13.890   16.870    8.610
157 1  -11.770   16.680    8.400
158 1  -11.100   16.390    7.590
159 1  -11.490   17.670    8.770
160 1  -11.650   15.660    9.530
161 1  -10.750   15.850   10.110
162 1  -12.520   15.750   10.190
163 1  -11.600   14.240    8.940
164 1  -11.960   13.330    9.700
165 1  -11.230   14.040    7.760
166 1  -13.270   18.140    7.040
167 1  -13.760   19.100    7.630
168 1  -12.860   18.210    5.770
169 1  -12.500   17.410    5.270
170 1  -12.840   19.520    5.090
171 1  -12.400   20.270    5.760
172 1  -12.010   19.480    3.810
173 1  -12.370   18.650    3.200
174 1  -12.150   20.420    3.280
175 1  -10.530   19.270    4.120
176 1  -10.310   19.740    5.080
177 1  -10.330   18.200    4.180
178 1   -9.650   19.890    3.050
179 1  -10.150   19.760    2.090
180 1   -9.550   20.950    3.260
181 1   -8.270   19.250    2.990
182 1   -7.760   19.370    3.950
183 1   -8.350   18.190    2.750
184 1   -7.480   19.940    1.920
185 1   -7.400   20.920    2.130
186 1   -6.550   19.530    1.860
187 1   -7.950   19.830    1.030
188 1  -14.260   20.020    4.830
189 1  -14.350   21.240    4.670
190 1  -15.230   19.140    4.820
191 1  -14.940   18.190    5.010
192 1  -16.640   19.400    4.630
193 1  -16.780   20.400    4.210
194 1  -17.250   18.370    3.660
195 1  -16.980   17.380    4.040
196 1  -18.330   18.490    3.700
197 1  -16.780   18.510    2.230
198 1  -17.210   19.390    1.770
199 1  -15.690   18.570    2.190
200 1  -17.240   17.260    1.490
201 1  -16.440   16.940    0.830
202 1  -17.450   16.490    2.230
203 1  -18.490   17.510    0.660
204 1  -19.380   17.190    1.210
205 1  -18.580   18.570    0.410
206 1  -18.360   16.700   -0.600
207 1  -18.280   15.720   -0.360
208 1  -19.180   16.840   -1.180
209 1  -17.540   16.990   -1.110
210 1  -17.460   19.270    5.920
211 1  -18.670   19.350    5.830
212 1  -16.830   19.030    7.060
213 1  -15.820   19.020    7.080
214 1  -17.550   18.690    8.290
215 1  -16.860   18.320    9.050
216 1  -18.220   19.980    8.830
217 1  -17.620   20.870    8.640
218 1  -19.220   20.130    8.400
219 1  -18.330   19.760   10.230
220 1  -18.750   20.530   10.640
221 1  -18.560   17.570    8.170
222 1  -19.690   17.580    8.710
223 1  -18.160   16.530    7.400
224 1  -17.310   16.640    6.880
225 1  -18.900   15.300    7.260
226 1  -19.890   15.420    7.710
227 1  -19.090   14.890    5.790
228 1  -18.100   14.990    5.340
229 1  -19.380   13.840    5.790
230 1  -20.090   15.690    4.980
231 1  -19.740   16.720    4.900
232 1  -20.270   15.120    3.580
233 1  -20.630   14.090    3.660
234 1  -21.000   15.710    3.030
235 1  -19.320   15.130    3.060
236 1  -21.440   15.710    5.690
237 1  -21.330   16.160    6.680
238 1  -22.160   16.280    5.110
239 1  -21.810   14.690    5.810
240 1  -18.160   14.190    8.010
241 1  -16.920   14.140    7.910
242 1  -18.890   13.400    8.770
243 1  -19.870   13.560    8.910
244 1  -18.260   12.300    9.500
245 1  -17.190   12.470    9.590
246 1  -18.860   12.210   10.920
247 1  -19.940   12.140   10.840
248 1  -18.470   11.310   11.400
249 1  -18.490   13.430   11.760
250 1  -17.410   13.550   11.600
251 1  -19.010   14.270   11.310
252 1  -18.780   13.370   13.230
253 1  -19.560   12.510   13.700
254 1  -18.230   14.230   13.960
255 1  -18.460   11.010    8.720
256 1  -19.460   10.770    8.010
257 1  -17.470   10.100    8.830
258 1  -16.560   10.340    9.190
259 1  -17.660    8.780    8.230
260 1  -18.300    8.860    7.350
261 1  -16.300    8.200    7.800
262 1  -16.550    7.390    7.120
263 1  -15.800    9.000    7.240
264 1  -15.390    7.700    8.890
265 1  -15.840    6.950    9.760
266 1  -14.160    8.070    8.890
267 1  -18.490    7.900    9.160
268 1  -18.780    8.290   10.300
269 1  -18.900    6.730    8.710
270 1  -18.590    6.350    7.830
271 1  -19.880    5.960    9.480
272 1  -20.690    6.600    9.820
273 1  -20.470    4.850    8.590
274 1  -19.650    4.320    8.100
275 1  -21.020    4.150    9.230
276 1  -21.430    5.410    7.520
277 1  -22.420    5.590    7.960
278 1  -21.040    6.350    7.120
279 1  -21.550    4.390    6.400
280 1  -20.560    4.230    5.970
281 1  -21.910    3.450    6.830
282 1  -22.500    4.840    5.310
283 1  -23.520    4.670    5.660
284 1  -22.350    5.910    5.160
285 1  -22.300    4.130    4.020
286 1  -22.440    3.140    4.150
287 1  -22.960    4.480    3.340
288 1  -21.360    4.300    3.690
289 1  -19.330    5.310   10.730
290 1  -20.060    4.870   11.620
291 1  -18.000    5.210   10.900
292 1  -17.310    5.500   10.230
293 1  -17.540    4.550   12.130
294 1  -18.420    4.440   12.770
295 1  -16.940    3.150   11.870
296 1  -16.730    2.660   12.820
297 1  -17.960    2.330   11.080
298 1  -18.170    2.830   10.130
299 1  -17.550    1.340   10.890
300 1  -18.880    2.240   11.660
301 1  -15.750    3.240   11.060
302 1  -15.400    2.350   10.920
303 1  -16.520    5.390   12.900
304 1  -16.030    4.850   13.920
305 1  -16.180    6.620   12.520
306 1  -16.540    7.050   11.680
307 1  -15.130    7.360   13.300
308 1  -14.230    6.740   13.390
309 1  -14.770    8.640   12.580
310 1  -13.980    9.120   13.160
311 1  -14.370    8.350   11.600
312 1  -15.950    9.640   12.380
313 1  -16.660    9.210   11.680
314 1  -16.440    9.840   13.320
315 1  -15.400   10.950   11.800
316 1  -15.340   11.070   10.550
317 1  -15.010   11.830   12.620
318 1  -15.560    7.580   14.730
319 1  -14.780    7.730   15.690
ITEM: TIMESTEP
1
ITEM: NUMBER OF ATOMS
319
ITEM: BOX BOUNDS pp pp pp
-23.520000457763672 -8.520000457763672
1.340000033378601 16.34000015258789
-2.5199999809265137 12.479999542236328
ITEM: ATOMS id type xu yu zu
1 1    3.010   17.840    7.170
2 1    2.670   18.090    8.090
3 1    3.940   18.240    7.050
4 1    2.860   16.860    7.020
5 1    2.170   18.510    6.180
6 1    2.790   19.170    5.570
7 1    1.490   17.490    5.270
8 1    0.900   16.830    5.900
9 1    0.830   18.040    4.600
10 1    2.470   16.660    4.450
11 1    3.320   16.400    5.090
12 1    1.960   15.750    4.140
13 1    2.980   17.410    3.230
14 1    4.200   17.670    3.150
15 1    2.150   17.720    2.350
16 1    1.130   19.410    6.860
17 1    0.370   18.960    7.720
18 1    1.130   20.670    6.440
19 1    1.770   20.970    5.720
20 1    0.270   21.680    7.060
21 1    0.640   21.840    8.070
22 1    0.350   22.990    6.290
23 1   -0.020   22.840    5.280
24 1   -0.250   23.740    6.800
25 1    1.390   23.330    6.260
26 1   -1.180   21.220    7.160
27 1   -1.780   21.460    8.210
28 1   -1.710   20.590    6.140
29 1   -1.050   20.400    5.400
30 1   -3.080   20.170    5.960
31 1   -3.760   20.630    6.680
32 1   -3.480   20.640    4.550
33 1   -3.230   21.690    4.490
34 1   -2.860   20.080    3.850
35 1   -4.930   20.440    4.210
36 1   -5.190   20.210    3.010
37 1   -5.770   20.520    5.130
38 1   -3.270   18.660    6.080
39 1   -4.300   18.060    5.760
40 1   -2.200   18.010    6.580
41 1   -1.340   18.480    6.840
42 1   -2.280   16.570    6.730
43 1   -2.420   16.110    5.750
44 1   -1.000   16.010    7.360
45 1   -1.060   14.920    7.330
46 1   -0.150   16.340    6.760
47 1   -0.610   16.430    9.050
48 1   -3.450   16.100    7.590
49 1   -3.820   16.800    8.520
50 1   -3.910   14.900    7.270
51 1   -3.640   14.410    6.430
52 1   -4.860   14.250    8.170
53 1   -4.910   13.200    7.880
54 1   -4.460   14.340    9.180
55 1   -6.250   14.840    8.140
56 1   -7.070   14.380    8.950
57 1   -6.520   15.750    7.220
58 1   -5.780   16.070    6.620
59 1   -7.840   16.350    7.050
60 1   -8.510   15.960    7.820
61 1   -7.790   17.870    7.180
62 1   -7.120   18.190    6.370
63 1   -8.790   18.260    6.990
64 1   -7.270   18.410    8.500
65 1   -6.340   17.900    8.770
66 1   -7.010   19.910    8.360
67 1   -7.940   20.420    8.100
68 1   -6.640   20.310    9.310
69 1   -6.270   20.080    7.590
70 1   -8.230   18.160    9.650
71 1   -8.400   17.090    9.770
72 1   -7.810   18.560   10.570
73 1   -9.190   18.650    9.440
74 1   -8.380   15.930    5.700
75 1   -7.910   16.310    4.630
76 1   -9.400   15.080    5.710
77 1   -9.900   14.790    6.540
78 1   -9.790   14.500    4.430
79 1   -8.920   14.320    3.810
80 1  -10.480   13.170    4.680
81 1  -11.420   13.420    5.180
82 1  -10.700   12.760    3.690
83 1   -9.730   12.150    5.500
84 1   -8.890   11.820    4.880
85 1   -9.350   12.670    6.370
86 1  -10.520   10.940    5.940
87 1  -11.080   10.520    5.090
88 1   -9.860   10.170    6.340
89 1  -11.480   11.320    6.990
90 1  -11.470   12.270    7.350
91 1  -12.380   10.480    7.460
92 1  -12.490    9.220    7.070
93 1  -11.860    8.860    6.360
94 1  -13.200    8.630    7.470
95 1  -13.220   10.910    8.420
96 1  -13.160   11.860    8.750
97 1  -13.920   10.280    8.790
98 1  -10.720   15.410    3.630
99 1  -11.680   15.870    4.240
100 1  -10.440   15.600    2.360
101 1   -9.270   15.130    1.570
102 1   -9.400   14.090    1.260
103 1   -8.350   15.230    2.140
104 1   -9.340   16.100    0.380
105 1   -8.840   15.680   -0.490
106 1   -8.880   17.050    0.640
107 1  -10.810   16.260    0.140
108 1  -11.230   15.350   -0.290
109 1  -11.080   17.120   -0.480
110 1  -11.340   16.460    1.560
111 1  -11.230   17.480    1.920
112 1  -12.790   16.050    1.680
113 1  -13.640   16.980    1.700
114 1  -13.190   14.810    1.730
115 1  -12.490   14.080    1.780
116 1  -14.590   14.420    1.610
117 1  -15.140   15.230    1.150
118 1  -14.760   13.160    0.760
119 1  -13.720   12.830    0.750
120 1  -15.350   12.470    1.360
121 1  -15.300   13.180   -0.660
122 1  -16.350   12.890   -0.590
123 1  -15.180   14.500   -1.410
124 1  -14.130   14.780   -1.490
125 1  -15.600   14.390   -2.410
126 1  -15.730   15.270   -0.870
127 1  -14.660   12.060   -1.510
128 1  -14.880   11.090   -1.060
129 1  -15.060   12.100   -2.520
130 1  -13.580   12.210   -1.550
131 1  -15.210   14.270    2.990
132 1  -16.370   13.930    3.130
133 1  -14.430   14.580    4.060
134 1  -13.470   14.860    3.940
135 1  -14.930   14.390    5.410
136 1  -16.020   14.370    5.390
137 1  -14.420   13.050    6.040
138 1  -13.350   12.890    5.900
139 1  -14.660   12.990    7.100
140 1  -15.130   11.880    5.360
141 1  -16.390   11.470    5.690
142 1  -16.890   11.960    6.520
143 1  -17.020   10.440    5.000
144 1  -18.030   10.140    5.270
145 1  -16.360    9.790    3.950
146 1  -16.850    8.980    3.400
147 1  -15.080   10.200    3.600
148 1  -14.560    9.720    2.770
149 1  -14.460   11.210    4.320
150 1  -13.440   11.500    4.080
151 1  -14.590   15.590    6.250
152 1  -15.400   16.540    6.250
153 1  -13.460   15.640    6.950
154 1  -12.800   14.880    6.940
155 1  -13.160   16.810    7.800
156 1  -13.890   16.870    8.610
157 1  -11.770   16.680    8.400
158 1  -11.100   16.390    7.590
159 1  -11.490   17.670    8.770
160 1  -11.650   15.660    9.530
161 1  -10.750   15.850   10.110
162 1  -12.520   15.750   10.190
163 1  -11.600   14.240    8.940
164 1  -11.960   13.330    9.700
165 1  -11.230   14.040    7.760
166 1  -13.270   18.140    7.040
167 1  -13.760   19.100    7.630
168 1  -12.860   18.210    5.770
169 1  -12.500   17.410    5.270
170 1  -12.840   19.520    5.090
171 1  -12.400   20.270    5.760
172 1  -12.010   19.480    3.810
173 1  -12.370   18.650    3.200
174 1  -12.150   20.420    3.280
175 1  -10.530   19.270    4.120
176 1  -10.310   19.740    5.080
177 1  -10.330   18.200    4.180
178 1   -9.650   19.890    3.050
179 1  -10.150   19.760    2.090
180 1   -9.550   20.950    3.260
181 1   -8.270   19.250    2.990
182 1   -7.760   19.370    3.950
183 1   -8.350   18.190    2.750
184 1   -7.480   19.940    1.920
185 1   -7.400   20.920    2.130
186 1   -6.550   19.530    1.860
187 1   -7.950   19.830    1.030
188 1  -14.260   20.020    4.830
189 1  -14.350   21.240    4.670
190 1  -15.230   19.140    4.820
191 1  -14.940   18.190    5.010
192 1  -16.640   19.400    4.630
193 1  -16.780   20.400    4.210
194 1  -17.250   18.370    3.660
195 1  -16.980   17.380    4.040
196 1  -18.330   18.490    3.700
197 1  -16.780   18.510    2.230
198 1  -17.210   19.390    1.770
199 1  -15.690   18.570    2.190
200 1  -17.240   17.260    1.490
201 1  -16.440   16.940    0.830
202 1  -17.450   16.490    2.230
203 1  -18.490   17.510    0.660
204 1  -19.380   17.190    1.210
205 1  -18.580   18.570    0.410
206 1  -18.360   16.700   -0.600
207 1  -18.280   15.720   -0.360
208 1  -19.180   16.840   -1.180
209 1  -17.540   16.990   -1.110
210 1  -17.460   19.270    5.920
211 1  -18.670   19.350    5.830
212 1  -16.830   19.030    7.060
213 1  -15.820   19.020    7.080
214 1  -17.550   18.690    8.290
215 1  -16.860   18.320    9.050
216 1  -18.220   19.980    8.830
217 1  -17.620   20.870    8.640
218 1  -19.220   20.130    8.400
219 1  -18.330   19.760   10.230
220 1  -18.750   20.530   10.640
221 1  -18.560   17.570    8.170
222 1  -19.690   17.580    8.710
223 1  -18.160   16.530    7.400
224 1  -17.310   16.640    6.880
225 1  -18.900   15.300    7.260
226 1  -19.890   15.420    7.710
227 1  -19.090   14.890    5.790
228 1  -18.100   14.990    5.340
229 1  -19.380   13.840    5.790
230 1  -20.090   15.690    4.980
231 1  -19.740   16.720    4.900
232 1  -20.270   15.120    3.580
233 1  -20.630   14.090    3.660
234 1  -21.000   15.710    3.030
235 1  -19.320   15.130    3.060
236 1  -21.440   15.710    5.690
237 1  -21.330   16.160    6.680
238 1  -22.160   16.280    5.110
239 1  -21.810   14.690    5.810
240 1  -18.160   14.190    8.010
241 1  -16.920   14.140    7.910
242 1  -18.890   13.400    8.770
243 1  -19.870   13.560    8.910
244 1  -18.260   12.300    9.500
245 1  -17.190   12.470    9.590
246 1  -18.860   12.210   10.920
247 1  -19.940   12.140   10.840
248 1  -18.470   11.310   11.400
249 1  -18.490   13.430   11.760
250 1  -17.410   13.550   11.600
251 1  -19.010   14.270   11.310
252 1  -18.780   13.370   13.230
253 1  -19.560   12.510   13.700
254 1  -18.230   14.230   13.960
255 1  -18.460   11.010    8.720
256 1  -19.460   10.770    8.010
257 1  -17.470   10.100    8.830
258 1  -16.560   10.340    9.190
259 1  -17.660    8.780    8.230
260 1  -18.300    8.860    7.350
261 1  -16.300    8.200    7.800
262 1  -16.550    7.390    7.120
263 1  -15.800    9.000    7.240
264 1  -15.390    7.700    8.890
265 1  -15.840    6.950    9.760
266 1  -14.160    8.070    8.890
267 1  -18.490    7.900    9.160
268 1  -18.780    8.290   10.300
269 1  -18.900    6.730    8.710
270 1  -18.590    6.350    7.830
271 1  -19.880    5.960    9.480
272 1  -20.690    6.600    9.820
273 1  -20.470    4.850    8.590
274 1  -19.650    4.320    8.100
275 1  -21.020    4.150    9.230
276 1  -21.430    5.410    7.520
277 1  -22.420    5.590    7.960
278 1  -21.040    6.350    7.120
279 1  -21.550    4.390    6.400
280 1  -20.560    4.230    5.970
281 1  -21.910    3.450    6.830
282 1  -22.500    4.840    5.310
283 1  -23.520    4.670    5.660
284 1  -22.350    5.910    5.160
285 1  -22.300    4.130    4.020
286 1  -22.440    3.140    4.150
287 1  -22.960    4.480    3.340
288 1  -21.360    4.300    3.690
289 1  -19.330    5.310   10.730
290 1  -20.060    4.870   11.620
291 1  -18.000    5.210   10.900
292 1  -17.310    5.500   10.230
293 1  -17.540    4.550   12.130
294 1  -18.420    4.440   12.770
295 1  -16.940    3.150   11.870
296 1  -16.730    2.660   12.820
297 1  -17.960    2.330   11.080
298 1  -18.170    2.830   10.130
299 1  -17.550    1.340   10.890
300 1  -18.880    2.240   11.660
301 1  -15.750    3.240   11.060
302 1  -15.400    2.350   10.920
303 1  -16.520    5.390   12.900
304 1  -16.030    4.850   13.920
305 1  -16.180    6.620   12.520
306 1  -16.540    7.050   11.680
307 1  -15.130    7.360   13.300
308 1  -14.230    6.740   13.390
309 1  -14.770    8.640   12.580
310 1  -13.980    9.120   13.160
311 1  -14.370    8.350   11.600
312 1  -15.950    9.640   12.380
313 1  -16.660    9.210   11.680
314 1  -16.440    9.840   13.320
315 1  -15.400   10.950   11.800
316 1  -15.340   11.070   10.550
317 1  -15.010   11.830   12.620
318 1  -15.560    7.580   14.730
319 1  -14.780    7.730   15.690
