ITEM: TIMESTEP
0
ITEM: NUMBER OF ATOMS
280
ITEM: BOX BOUNDS pp pp pp
-18.81999969482422 -3.8199996948242188
-7.791999816894531 7.208000183105469
-15.234999656677246 -0.2349996566772461
ITEM: ATOMS id type xu yu zu
1 1   -1.134    8.224   -5.098
2 1   -1.136    9.229   -5.195
3 1   -0.495    7.971   -4.357
4 1   -2.089    7.898   -5.074
5 1   -0.549    7.639   -6.340
6 1    0.368    7.076   -6.163
7 1   -1.622    6.698   -7.016
8 1   -2.517    7.277   -7.243
9 1   -1.047    6.102   -8.325
10 1   -0.151    5.523   -8.099
11 1   -1.791    5.454   -8.787
12 1   -0.792    6.909   -9.011
13 1   -2.124    5.578   -6.072
14 1   -2.981    5.091   -6.536
15 1   -2.429    6.030   -5.128
16 1   -1.007    4.519   -5.804
17 1   -0.148    5.005   -5.340
18 1   -1.390    3.746   -5.138
19 1   -0.701    4.066   -6.747
20 1   -0.237    8.776   -7.325
21 1   -1.148    9.569   -7.678
22 1    0.992    8.847   -7.770
23 1    1.688    8.203   -7.422
24 1    1.395    9.821   -8.829
25 1    0.710   10.664   -8.916
26 1    2.810   10.364   -8.492
27 1    3.535    9.553   -8.568
28 1    3.192   11.491   -9.481
29 1    2.469   12.303   -9.405
30 1    4.186   11.867   -9.238
31 1    3.191   11.098  -10.498
32 1    2.848   10.873   -7.003
33 1    2.610   10.049   -6.330
34 1    3.844   11.252   -6.773
35 1    2.117   11.671   -6.872
36 1    1.490    9.129  -10.197
37 1    2.065    8.013  -10.305
38 1    0.940    9.779  -11.177
39 1    0.405   10.623  -11.029
40 1    1.091    9.288  -12.536
41 1    0.809   10.087  -13.222
42 1    2.139    9.029  -12.692
43 1    0.222    8.052  -12.822
44 1    0.649    7.231  -13.680
45 1   -0.901    7.843  -12.052
46 1   -1.180    8.524  -11.360
47 1   -1.725    6.628  -12.211
48 1   -1.190    5.910  -12.834
49 1   -1.911    6.190  -11.231
50 1   -3.070    6.961  -12.874
51 1   -3.186    8.002  -13.574
52 1   -4.088    6.160  -12.635
53 1   -3.972    5.342  -12.053
54 1   -5.395    6.393  -13.254
55 1   -5.497    7.440  -13.537
56 1   -5.529    5.509  -14.544
57 1   -6.501    5.727  -14.986
58 1   -4.741    5.809  -15.235
59 1   -5.418    3.991  -14.264
60 1   -6.527    3.160  -14.150
61 1   -7.529    3.571  -14.267
62 1   -6.356    1.794  -13.884
63 1   -7.214    1.126  -13.815
64 1   -5.058    1.281  -13.757
65 1   -4.784   -0.095  -13.465
66 1   -5.579   -0.623  -13.366
67 1   -3.967    2.116  -13.864
68 1   -2.957    1.722  -13.749
69 1   -4.160    3.466  -14.120
70 1   -3.301    4.132  -14.210
71 1   -6.457    6.084  -12.224
72 1   -6.140    5.520  -11.155
73 1   -7.620    6.566  -12.466
74 1   -7.775    7.045  -13.341
75 1   -8.770    6.348  -11.578
76 1   -8.550    6.577  -10.535
77 1   -9.931    7.257  -12.050
78 1  -10.138    7.039  -13.098
79 1  -11.208    7.019  -11.212
80 1  -11.001    7.237  -10.164
81 1  -12.004    7.672  -11.569
82 1  -11.519    5.979  -11.311
83 1   -9.505    8.580  -11.960
84 1  -10.210    9.164  -12.248
85 1   -9.286    4.927  -11.741
86 1   -9.549    4.466  -12.888
87 1   -9.174    4.191  -10.691
88 1   -9.037    4.580   -9.769
89 1   -9.405    2.755  -10.808
90 1   -8.611    2.269  -11.377
91 1   -9.412    2.182   -9.394
92 1  -10.121    2.737   -8.780
93 1   -9.704    1.133   -9.428
94 1   -7.843    2.368   -8.509
95 1  -10.808    2.468  -11.331
96 1  -10.983    1.452  -12.017
97 1  -11.812    3.206  -10.877
98 1  -11.600    4.029  -10.331
99 1  -13.218    2.883  -11.131
100 1  -13.776    3.786  -11.378
101 1  -13.301    2.169  -11.950
102 1  -13.810    2.263   -9.870
103 1  -13.072    1.543   -9.149
104 1  -15.049    2.668   -9.532
105 1  -15.534    3.342  -10.107
106 1  -15.657    2.281   -8.238
107 1  -14.973    2.673   -7.484
108 1  -17.038    2.967   -8.060
109 1  -17.735    2.578   -8.802
110 1  -17.420    2.761   -7.060
111 1  -16.929    4.043   -8.193
112 1  -15.714    0.755   -8.018
113 1  -16.201   -0.009   -8.894
114 1  -15.150    0.319   -6.877
115 1  -14.649    1.012   -6.339
116 1  -15.158   -1.049   -6.397
117 1  -14.542   -1.120   -5.500
118 1  -16.571   -1.514   -6.056
119 1  -17.133   -1.558   -6.989
120 1  -16.582   -2.494   -5.579
121 1  -17.255   -0.500   -5.115
122 1  -16.838   -0.303   -3.935
123 1  -18.314    0.075   -5.607
124 1  -18.820    0.752   -5.054
125 1  -18.624   -0.159   -6.539
126 1  -14.540   -1.974   -7.429
127 1  -14.683   -3.214   -7.293
128 1  -13.657   -1.411   -8.271
129 1  -13.550   -0.422   -8.445
130 1  -12.834   -2.359   -9.065
131 1  -13.440   -3.214   -9.364
132 1  -12.283   -1.677  -10.336
133 1  -11.779   -2.439  -10.931
134 1  -13.374   -1.014  -11.176
135 1  -13.877   -0.251  -10.582
136 1  -12.925   -0.552  -12.055
137 1  -14.098   -1.766  -11.490
138 1  -11.343   -0.670   -9.974
139 1  -11.003   -0.249  -10.767
140 1  -11.660   -2.997   -8.303
141 1  -10.998   -3.922   -8.838
142 1  -11.370   -2.558   -7.081
143 1  -11.900   -1.789   -6.696
144 1  -10.280   -3.139   -6.262
145 1   -9.856   -4.065   -6.652
146 1   -9.126   -2.122   -6.033
147 1   -9.494   -1.305   -5.412
148 1   -7.926   -2.804   -5.330
149 1   -7.557   -3.621   -5.950
150 1   -7.130   -2.075   -5.179
151 1   -8.245   -3.197   -4.365
152 1   -8.685   -1.355   -7.309
153 1   -9.530   -0.793   -7.706
154 1   -7.876   -0.668   -7.059
155 1   -8.338   -2.066   -8.059
156 1  -10.810   -3.593   -4.881
157 1  -10.840   -2.781   -3.943
158 1  -11.596   -4.643   -4.865
159 1  -11.579   -5.770   -5.836
160 1  -10.591   -6.230   -5.803
161 1  -11.756   -5.362   -6.831
162 1  -12.709   -6.744   -5.383
163 1  -12.249   -7.696   -5.119
164 1  -13.388   -6.889   -6.223
165 1  -13.444   -6.125   -4.185
166 1  -13.428   -6.846   -3.368
167 1  -14.474   -5.843   -4.400
168 1  -12.616   -4.860   -3.793
169 1  -13.220   -3.957   -3.706
170 1  -11.961   -5.170   -2.436
171 1  -12.694   -5.197   -1.434
172 1  -10.656   -5.448   -2.407
173 1  -10.130   -5.448   -3.269
174 1   -9.946   -5.768   -1.157
175 1  -10.653   -6.195   -0.446
176 1   -8.799   -6.783   -1.384
177 1   -8.155   -6.746   -0.505
178 1   -9.193   -7.792   -1.503
179 1   -7.979   -6.398   -2.639
180 1   -6.940   -5.489   -2.541
181 1   -6.697   -5.072   -1.564
182 1   -6.202   -5.102   -3.674
183 1   -5.386   -4.383   -3.592
184 1   -6.519   -5.667   -4.922
185 1   -5.774   -5.317   -6.088
186 1   -5.074   -4.684   -5.910
187 1   -7.593   -6.577   -5.023
188 1   -7.856   -7.001   -5.992
189 1   -8.322   -6.937   -3.877
190 1   -9.153   -7.637   -3.958
191 1   -9.353   -4.501   -0.562
192 1   -8.728   -4.605    0.545
193 1   -9.468   -3.379   -1.328
194 1   -9.894   -3.376   -2.243
195 1   -8.836   -2.113   -0.835
196 1   -7.821   -2.341   -0.508
197 1   -8.771   -0.990   -1.918
198 1   -8.090   -1.333   -2.697
199 1   -9.773   -0.883   -2.333
200 1   -8.280    0.402   -1.367
201 1   -8.579    1.037   -2.201
202 1   -8.760    0.752   -0.453
203 1   -6.742    0.508   -1.191
204 1   -6.210    1.094   -0.173
205 1   -6.037    0.159   -2.254
206 1   -5.028    0.199   -2.223
207 1   -6.510   -0.146   -3.092
208 1   -9.580   -1.639    0.419
209 1  -10.814   -1.403    0.311
210 1   -8.856   -1.293    1.490
211 1   -7.859   -1.452    1.537
212 1   -9.527   -0.669    2.664
213 1  -10.496   -0.228    2.896
214 1   -9.123   -1.634    3.832
215 1   -8.225   -2.122    3.453
216 1   -8.862   -1.115    5.233
217 1   -9.759   -0.627    5.613
218 1   -8.597   -1.947    5.886
219 1   -8.041   -0.398    5.208
220 1   -9.701   -3.065    3.684
221 1   -9.340   -3.509    2.756
222 1   -9.380   -3.676    4.528
223 1  -10.789   -3.017    3.664
224 1   -9.002    0.764    2.836
225 1   -7.803    1.023    2.510
226 1   -9.789    1.574    3.513
227 1  -10.763    1.356    3.667
228 1   -9.260    2.836    4.061
229 1   -8.239    2.994    3.711
230 1  -10.126    4.022    3.602
231 1   -9.903    4.199    2.550
232 1  -11.168    3.723    3.707
233 1   -9.894    5.240    4.357
234 1  -10.462    5.937    4.022
235 1   -9.289    2.703    5.594
236 1  -10.323    2.266    6.157
237 1   -8.191    3.097    6.219
238 1   -7.364    3.308    5.679
239 1   -8.122    3.232    7.677
240 1   -8.830    2.549    8.146
241 1   -6.693    2.891    8.184
242 1   -6.043    3.631    7.717
243 1   -6.647    3.001    9.268
244 1   -6.223    1.469    7.789
245 1   -6.061    1.433    6.712
246 1   -4.909    1.119    8.518
247 1   -5.070    1.154    9.596
248 1   -4.589    0.117    8.232
249 1   -4.137    1.838    8.243
250 1   -7.315    0.420    8.095
251 1   -8.217    0.659    7.532
252 1   -6.959   -0.570    7.808
253 1   -7.540    0.430    9.162
254 1   -8.481    4.693    8.050
255 1   -7.854    5.652    7.527
256 1   -9.483    4.798    8.877
257 1   -9.922    3.946    9.194
258 1  -10.087    6.075    9.262
259 1   -9.506    6.892    8.834
260 1  -11.552    6.187    8.755
261 1  -11.581    5.930    7.696
262 1  -12.150    5.471    9.319
263 1  -12.156    7.578    8.937
264 1  -12.441    7.986   10.103
265 1  -12.330    8.294    7.834
266 1  -12.725    9.221    7.895
267 1  -12.065    7.909    6.939
268 1   -9.960    6.296   10.779
269 1  -10.349    5.425   11.618
270 1   -9.438    7.495   11.109
271 1   -8.919    8.086   10.475
272 1   -9.500    7.876   12.513
273 1  -10.170    7.198   13.041
274 1   -8.105    7.811   13.181
275 1   -8.192    8.103   14.228
276 1   -7.722    6.792   13.119
277 1   -7.195    8.709   12.505
278 1   -6.332    8.665   12.923
279 1  -10.181    9.231   12.671
280 1   -9.534   10.142   13.241
ITEM: TIMESTEP
1
ITEM: NUMBER OF ATOMS
280
ITEM: BOX BOUNDS pp pp pp
-18.81999969482422 -3.8199996948242188
-7.791999816894531 7.208000183105469
-15.234999656677246 -0.2349996566772461
ITEM: ATOMS id type xu yu zu
1 1   -1.134    8.224   -5.098
2 1   -1.136    9.229   -5.195
3 1   -0.495    7.971   -4.357
4 1   -2.089    7.898   -5.074
5 1   -0.549    7.639   -6.340
6 1    0.368    7.076   -6.163
7 1   -1.622    6.698   -7.016
8 1   -2.517    7.277   -7.243
9 1   -1.047    6.102   -8.325
10 1   -0.151    5.523   -8.099
11 1   -1.791    5.454   -8.787
12 1   -0.792    6.909   -9.011
13 1   -2.124    5.578   -6.072
14 1   -2.981    5.091   -6.536
15 1   -2.429    6.030   -5.128
16 1   -1.007    4.519   -5.804
17 1   -0.148    5.005   -5.340
18 1   -1.390    3.746   -5.138
19 1   -0.701    4.066   -6.747
20 1   -0.237    8.776   -7.325
21 1   -1.148    9.569   -7.678
22 1    0.992    8.847   -7.770
23 1    1.688    8.203   -7.422
24 1    1.395    9.821   -8.829
25 1    0.710   10.664   -8.916
26 1    2.810   10.364   -8.492
27 1    3.535    9.553   -8.568
28 1    3.192   11.491   -9.481
29 1    2.469   12.303   -9.405
30 1    4.186   11.867   -9.238
31 1    3.191   11.098  -10.498
32 1    2.848   10.873   -7.003
33 1    2.610   10.049   -6.330
34 1    3.844   11.252   -6.773
35 1    2.117   11.671   -6.872
36 1    1.490    9.129  -10.197
37 1    2.065    8.013  -10.305
38 1    0.940    9.779  -11.177
39 1    0.405   10.623  -11.029
40 1    1.091    9.288  -12.536
41 1    0.809   10.087  -13.222
42 1    2.139    9.029  -12.692
43 1    0.222    8.052  -12.822
44 1    0.649    7.231  -13.680
45 1   -0.901    7.843  -12.052
46 1   -1.180    8.524  -11.360
47 1   -1.725    6.628  -12.211
48 1   -1.190    5.910  -12.834
49 1   -1.911    6.190  -11.231
50 1   -3.070    6.961  -12.874
51 1   -3.186    8.002  -13.574
52 1   -4.088    6.160  -12.635
53 1   -3.972    5.342  -12.053
54 1   -5.395    6.393  -13.254
55 1   -5.497    7.440  -13.537
56 1   -5.529    5.509  -14.544
57 1   -6.501    5.727  -14.986
58 1   -4.741    5.809  -15.235
59 1   -5.418    3.991  -14.264
60 1   -6.527    3.160  -14.150
61 1   -7.529    3.571  -14.267
62 1   -6.356    1.794  -13.884
63 1   -7.214    1.126  -13.815
64 1   -5.058    1.281  -13.757
65 1   -4.784   -0.095  -13.465
66 1   -5.579   -0.623  -13.366
67 1   -3.967    2.116  -13.864
68 1   -2.957    1.722  -13.749
69 1   -4.160    3.466  -14.120
70 1   -3.301    4.132  -14.210
71 1   -6.457    6.084  -12.224
72 1   -6.140    5.520  -11.155
73 1   -7.620    6.566  -12.466
74 1   -7.775    7.045  -13.341
75 1   -8.770    6.348  -11.578
76 1   -8.550    6.577  -10.535
77 1   -9.931    7.257  -12.050
78 1  -10.138    7.039  -13.098
79 1  -11.208    7.019  -11.212
80 1  -11.001    7.237  -10.164
81 1  -12.004    7.672  -11.569
82 1  -11.519    5.979  -11.311
83 1   -9.505    8.580  -11.960
84 1  -10.210    9.164  -12.248
85 1   -9.286    4.927  -11.741
86 1   -9.549    4.466  -12.888
87 1   -9.174    4.191  -10.691
88 1   -9.037    4.580   -9.769
89 1   -9.405    2.755  -10.808
90 1   -8.611    2.269  -11.377
91 1   -9.412    2.182   -9.394
92 1  -10.121    2.737   -8.780
93 1   -9.704    1.133   -9.428
94 1   -7.843    2.368   -8.509
95 1  -10.808    2.468  -11.331
96 1  -10.983    1.452  -12.017
97 1  -11.812    3.206  -10.877
98 1  -11.600    4.029  -10.331
99 1  -13.218    2.883  -11.131
100 1  -13.776    3.786  -11.378
101 1  -13.301    2.169  -11.950
102 1  -13.810    2.263   -9.870
103 1  -13.072    1.543   -9.149
104 1  -15.049    2.668   -9.532
105 1  -15.534    3.342  -10.107
106 1  -15.657    2.281   -8.238
107 1  -14.973    2.673   -7.484
108 1  -17.038    2.967   -8.060
109 1  -17.735    2.578   -8.802
110 1  -17.420    2.761   -7.060
111 1  -16.929    4.043   -8.193
112 1  -15.714    0.755   -8.018
113 1  -16.201   -0.009   -8.894
114 1  -15.150    0.319   -6.877
115 1  -14.649    1.012   -6.339
116 1  -15.158   -1.049   -6.397
117 1  -14.542   -1.120   -5.500
118 1  -16.571   -1.514   -6.056
119 1  -17.133   -1.558   -6.989
120 1  -16.582   -2.494   -5.579
121 1  -17.255   -0.500   -5.115
122 1  -16.838   -0.303   -3.935
123 1  -18.314    0.075   -5.607
124 1  -18.820    0.752   -5.054
125 1  -18.624   -0.159   -6.539
126 1  -14.540   -1.974   -7.429
127 1  -14.683   -3.214   -7.293
128 1  -13.657   -1.411   -8.271
129 1  -13.550   -0.422   -8.445
130 1  -12.834   -2.359   -9.065
131 1  -13.440   -3.214   -9.364
132 1  -12.283   -1.677  -10.336
133 1  -11.779   -2.439  -10.931
134 1  -13.374   -1.014  -11.176
135 1  -13.877   -0.251  -10.582
136 1  -12.925   -0.552  -12.055
137 1  -14.098   -1.766  -11.490
138 1  -11.343   -0.670   -9.974
139 1  -11.003   -0.249  -10.767
140 1  -11.660   -2.997   -8.303
141 1  -10.998   -3.922   -8.838
142 1  -11.370   -2.558   -7.081
143 1  -11.900   -1.789   -6.696
144 1  -10.280   -3.139   -6.262
145 1   -9.856   -4.065   -6.652
146 1   -9.126   -2.122   -6.033
147 1   -9.494   -1.305   -5.412
148 1   -7.926   -2.804   -5.330
149 1   -7.557   -3.621   -5.950
150 1   -7.130   -2.075   -5.179
151 1   -8.245   -3.197   -4.365
152 1   -8.685   -1.355   -7.309
153 1   -9.530   -0.793   -7.706
154 1   -7.876   -0.668   -7.059
155 1   -8.338   -2.066   -8.059
156 1  -10.810   -3.593   -4.881
157 1  -10.840   -2.781   -3.943
158 1  -11.596   -4.643   -4.865
159 1  -11.579   -5.770   -5.836
160 1  -10.591   -6.230   -5.803
161 1  -11.756   -5.362   -6.831
162 1  -12.709   -6.744   -5.383
163 1  -12.249   -7.696   -5.119
164 1  -13.388   -6.889   -6.223
165 1  -13.444   -6.125   -4.185
166 1  -13.428   -6.846   -3.368
167 1  -14.474   -5.843   -4.400
168 1  -12.616   -4.860   -3.793
169 1  -13.220   -3.957   -3.706
170 1  -11.961   -5.170   -2.436
171 1  -12.694   -5.197   -1.434
172 1  -10.656   -5.448   -2.407
173 1  -10.130   -5.448   -3.269
174 1   -9.946   -5.768   -1.157
175 1  -10.653   -6.195   -0.446
176 1   -8.799   -6.783   -1.384
177 1   -8.155   -6.746   -0.505
178 1   -9.193   -7.792   -1.503
179 1   -7.979   -6.398   -2.639
180 1   -6.940   -5.489   -2.541
181 1   -6.697   -5.072   -1.564
182 1   -6.202   -5.102   -3.674
183 1   -5.386   -4.383   -3.592
184 1   -6.519   -5.667   -4.922
185 1   -5.774   -5.317   -6.088
186 1   -5.074   -4.684   -5.910
187 1   -7.593   -6.577   -5.023
188 1   -7.856   -7.001   -5.992
189 1   -8.322   -6.937   -3.877
190 1   -9.153   -7.637   -3.958
191 1   -9.353   -4.501   -0.562
192 1   -8.728   -4.605    0.545
193 1   -9.468   -3.379   -1.328
194 1   -9.894   -3.376   -2.243
195 1   -8.836   -2.113   -0.835
196 1   -7.821   -2.341   -0.508
197 1   -8.771   -0.990   -1.918
198 1   -8.090   -1.333   -2.697
199 1   -9.773   -0.883   -2.333
200 1   -8.280    0.402   -1.367
201 1   -8.579    1.037   -2.201
202 1   -8.760    0.752   -0.453
203 1   -6.742    0.508   -1.191
204 1   -6.210    1.094   -0.173
205 1   -6.037    0.159   -2.254
206 1   -5.028    0.199   -2.223
207 1   -6.510   -0.146   -3.092
208 1   -9.580   -1.639    0.419
209 1  -10.814   -1.403    0.311
210 1   -8.856   -1.293    1.490
211 1   -7.859   -1.452    1.537
212 1   -9.527   -0.669    2.664
213 1  -10.496   -0.228    2.896
214 1   -9.123   -1.634    3.832
215 1   -8.225   -2.122    3.453
216 1   -8.862   -1.115    5.233
217 1   -9.759   -0.627    5.613
218 1   -8.597   -1.947    5.886
219 1   -8.041   -0.398    5.208
220 1   -9.701   -3.065    3.684
221 1   -9.340   -3.509    2.756
222 1   -9.380   -3.676    4.528
223 1  -10.789   -3.017    3.664
224 1   -9.002    0.764    2.836
225 1   -7.803    1.023    2.510
226 1   -9.789    1.574    3.513
227 1  -10.763    1.356    3.667
228 1   -9.260    2.836    4.061
229 1   -8.239    2.994    3.711
230 1  -10.126    4.022    3.602
231 1   -9.903    4.199    2.550
232 1  -11.168    3.723    3.707
233 1   -9.894    5.240    4.357
234 1  -10.462    5.937    4.022
235 1   -9.289    2.703    5.594
236 1  -10.323    2.266    6.157
237 1   -8.191    3.097    6.219
238 1   -7.364    3.308    5.679
239 1   -8.122    3.232    7.677
240 1   -8.830    2.549    8.146
241 1   -6.693    2.891    8.184
242 1   -6.043    3.631    7.717
243 1   -6.647    3.001    9.268
244 1   -6.223    1.469    7.789
245 1   -6.061    1.433    6.712
246 1   -4.909    1.119    8.518
247 1   -5.070    1.154    9.596
248 1   -4.589    0.117    8.232
249 1   -4.137    1.838    8.243
250 1   -7.315    0.420    8.095
251 1   -8.217    0.659    7.532
252 1   -6.959   -0.570    7.808
253 1   -7.540    0.430    9.162
254 1   -8.481    4.693    8.050
255 1   -7.854    5.652    7.527
256 1   -9.483    4.798    8.877
257 1   -9.922    3.946    9.194
258 1  -10.087    6.075    9.262
259 1   -9.506    6.892    8.834
260 1  -11.552    6.187    8.755
261 1  -11.581    5.930    7.696
262 1  -12.150    5.471    9.319
263 1  -12.156    7.578    8.937
264 1  -12.441    7.986   10.103
265 1  -12.330    8.294    7.834
266 1  -12.725    9.221    7.895
267 1  -12.065    7.909    6.939
268 1   -9.960    6.296   10.779
269 1  -10.349    5.425   11.618
270 1   -9.438    7.495   11.109
271 1   -8.919    8.086   10.475
272 1   -9.500    7.876   12.513
273 1  -10.170    7.198   13.041
274 1   -8.105    7.811   13.181
275 1   -8.192    8.103   14.228
276 1   -7.722    6.792   13.119
277 1   -7.195    8.709   12.505
278 1   -6.332    8.665   12.923
279 1  -10.181    9.231   12.671
280 1   -9.534   10.142   13.241
