ITEM: TIMESTEP
0
ITEM: NUMBER OF ATOMS
280
ITEM: BOX BOUNDS pp pp pp
-18.82000160217285 -3.8200016021728516
-7.7900004386901855 7.2099995613098145
-15.24000072479248 -0.24000072479248047
ITEM: ATOMS id type xu yu zu
1 1   -1.130    8.220   -5.100
2 1   -1.140    9.230   -5.200
3 1   -0.500    7.970   -4.360
4 1   -2.090    7.900   -5.070
5 1   -0.550    7.640   -6.340
6 1    0.370    7.080   -6.160
7 1   -1.620    6.700   -7.020
8 1   -2.520    7.280   -7.240
9 1   -1.050    6.100   -8.330
10 1   -0.150    5.520   -8.100
11 1   -1.790    5.450   -8.790
12 1   -0.790    6.910   -9.010
13 1   -2.120    5.580   -6.070
14 1   -2.980    5.090   -6.540
15 1   -2.430    6.030   -5.130
16 1   -1.010    4.520   -5.800
17 1   -0.150    5.010   -5.340
18 1   -1.390    3.750   -5.140
19 1   -0.700    4.070   -6.750
20 1   -0.240    8.780   -7.330
21 1   -1.150    9.570   -7.680
22 1    0.990    8.850   -7.770
23 1    1.690    8.200   -7.420
24 1    1.400    9.820   -8.830
25 1    0.710   10.660   -8.920
26 1    2.810   10.360   -8.490
27 1    3.540    9.550   -8.570
28 1    3.190   11.490   -9.480
29 1    2.470   12.300   -9.400
30 1    4.190   11.870   -9.240
31 1    3.190   11.100  -10.500
32 1    2.850   10.870   -7.000
33 1    2.610   10.050   -6.330
34 1    3.840   11.250   -6.770
35 1    2.120   11.670   -6.870
36 1    1.490    9.130  -10.200
37 1    2.070    8.010  -10.310
38 1    0.940    9.780  -11.180
39 1    0.410   10.620  -11.030
40 1    1.090    9.290  -12.540
41 1    0.810   10.090  -13.220
42 1    2.140    9.030  -12.690
43 1    0.220    8.050  -12.820
44 1    0.650    7.230  -13.680
45 1   -0.900    7.840  -12.050
46 1   -1.180    8.520  -11.360
47 1   -1.730    6.630  -12.210
48 1   -1.190    5.910  -12.830
49 1   -1.910    6.190  -11.230
50 1   -3.070    6.960  -12.870
51 1   -3.190    8.000  -13.570
52 1   -4.090    6.160  -12.640
53 1   -3.970    5.340  -12.050
54 1   -5.400    6.390  -13.250
55 1   -5.500    7.440  -13.540
56 1   -5.530    5.510  -14.540
57 1   -6.500    5.730  -14.990
58 1   -4.740    5.810  -15.240
59 1   -5.420    3.990  -14.260
60 1   -6.530    3.160  -14.150
61 1   -7.530    3.570  -14.270
62 1   -6.360    1.790  -13.880
63 1   -7.210    1.130  -13.820
64 1   -5.060    1.280  -13.760
65 1   -4.780   -0.100  -13.470
66 1   -5.580   -0.620  -13.370
67 1   -3.970    2.120  -13.860
68 1   -2.960    1.720  -13.750
69 1   -4.160    3.470  -14.120
70 1   -3.300    4.130  -14.210
71 1   -6.460    6.080  -12.220
72 1   -6.140    5.520  -11.160
73 1   -7.620    6.570  -12.470
74 1   -7.780    7.050  -13.340
75 1   -8.770    6.350  -11.580
76 1   -8.550    6.580  -10.540
77 1   -9.930    7.260  -12.050
78 1  -10.140    7.040  -13.100
79 1  -11.210    7.020  -11.210
80 1  -11.000    7.240  -10.160
81 1  -12.000    7.670  -11.570
82 1  -11.520    5.980  -11.310
83 1   -9.510    8.580  -11.960
84 1  -10.210    9.160  -12.250
85 1   -9.290    4.930  -11.740
86 1   -9.550    4.470  -12.890
87 1   -9.170    4.190  -10.690
88 1   -9.040    4.580   -9.770
89 1   -9.400    2.760  -10.810
90 1   -8.610    2.270  -11.380
91 1   -9.410    2.180   -9.390
92 1  -10.120    2.740   -8.780
93 1   -9.700    1.130   -9.430
94 1   -7.840    2.370   -8.510
95 1  -10.810    2.470  -11.330
96 1  -10.980    1.450  -12.020
97 1  -11.810    3.210  -10.880
98 1  -11.600    4.030  -10.330
99 1  -13.220    2.880  -11.130
100 1  -13.780    3.790  -11.380
101 1  -13.300    2.170  -11.950
102 1  -13.810    2.260   -9.870
103 1  -13.070    1.540   -9.150
104 1  -15.050    2.670   -9.530
105 1  -15.530    3.340  -10.110
106 1  -15.660    2.280   -8.240
107 1  -14.970    2.670   -7.480
108 1  -17.040    2.970   -8.060
109 1  -17.740    2.580   -8.800
110 1  -17.420    2.760   -7.060
111 1  -16.930    4.040   -8.190
112 1  -15.710    0.760   -8.020
113 1  -16.200   -0.010   -8.890
114 1  -15.150    0.320   -6.880
115 1  -14.650    1.010   -6.340
116 1  -15.160   -1.050   -6.400
117 1  -14.540   -1.120   -5.500
118 1  -16.570   -1.510   -6.060
119 1  -17.130   -1.560   -6.990
120 1  -16.580   -2.490   -5.580
121 1  -17.260   -0.500   -5.120
122 1  -16.840   -0.300   -3.940
123 1  -18.310    0.080   -5.610
124 1  -18.820    0.750   -5.050
125 1  -18.620   -0.160   -6.540
126 1  -14.540   -1.970   -7.430
127 1  -14.680   -3.210   -7.290
128 1  -13.660   -1.410   -8.270
129 1  -13.550   -0.420   -8.450
130 1  -12.830   -2.360   -9.070
131 1  -13.440   -3.210   -9.360
132 1  -12.280   -1.680  -10.340
133 1  -11.780   -2.440  -10.930
134 1  -13.370   -1.010  -11.180
135 1  -13.880   -0.250  -10.580
136 1  -12.930   -0.550  -12.060
137 1  -14.100   -1.770  -11.490
138 1  -11.340   -0.670   -9.970
139 1  -11.000   -0.250  -10.770
140 1  -11.660   -3.000   -8.300
141 1  -11.000   -3.920   -8.840
142 1  -11.370   -2.560   -7.080
143 1  -11.900   -1.790   -6.700
144 1  -10.280   -3.140   -6.260
145 1   -9.860   -4.070   -6.650
146 1   -9.130   -2.120   -6.030
147 1   -9.490   -1.310   -5.410
148 1   -7.930   -2.800   -5.330
149 1   -7.560   -3.620   -5.950
150 1   -7.130   -2.080   -5.180
151 1   -8.250   -3.200   -4.360
152 1   -8.690   -1.360   -7.310
153 1   -9.530   -0.790   -7.710
154 1   -7.880   -0.670   -7.060
155 1   -8.340   -2.070   -8.060
156 1  -10.810   -3.590   -4.880
157 1  -10.840   -2.780   -3.940
158 1  -11.600   -4.640   -4.870
159 1  -11.580   -5.770   -5.840
160 1  -10.590   -6.230   -5.800
161 1  -11.760   -5.360   -6.830
162 1  -12.710   -6.740   -5.380
163 1  -12.250   -7.700   -5.120
164 1  -13.390   -6.890   -6.220
165 1  -13.440   -6.130   -4.190
166 1  -13.430   -6.850   -3.370
167 1  -14.470   -5.840   -4.400
168 1  -12.620   -4.860   -3.790
169 1  -13.220   -3.960   -3.710
170 1  -11.960   -5.170   -2.440
171 1  -12.690   -5.200   -1.430
172 1  -10.660   -5.450   -2.410
173 1  -10.130   -5.450   -3.270
174 1   -9.950   -5.770   -1.160
175 1  -10.650   -6.200   -0.450
176 1   -8.800   -6.780   -1.380
177 1   -8.150   -6.750   -0.510
178 1   -9.190   -7.790   -1.500
179 1   -7.980   -6.400   -2.640
180 1   -6.940   -5.490   -2.540
181 1   -6.700   -5.070   -1.560
182 1   -6.200   -5.100   -3.670
183 1   -5.390   -4.380   -3.590
184 1   -6.520   -5.670   -4.920
185 1   -5.770   -5.320   -6.090
186 1   -5.070   -4.680   -5.910
187 1   -7.590   -6.580   -5.020
188 1   -7.860   -7.000   -5.990
189 1   -8.320   -6.940   -3.880
190 1   -9.150   -7.640   -3.960
191 1   -9.350   -4.500   -0.560
192 1   -8.730   -4.610    0.550
193 1   -9.470   -3.380   -1.330
194 1   -9.890   -3.380   -2.240
195 1   -8.840   -2.110   -0.840
196 1   -7.820   -2.340   -0.510
197 1   -8.770   -0.990   -1.920
198 1   -8.090   -1.330   -2.700
199 1   -9.770   -0.880   -2.330
200 1   -8.280    0.400   -1.370
201 1   -8.580    1.040   -2.200
202 1   -8.760    0.750   -0.450
203 1   -6.740    0.510   -1.190
204 1   -6.210    1.090   -0.170
205 1   -6.040    0.160   -2.250
206 1   -5.030    0.200   -2.220
207 1   -6.510   -0.150   -3.090
208 1   -9.580   -1.640    0.420
209 1  -10.810   -1.400    0.310
210 1   -8.860   -1.290    1.490
211 1   -7.860   -1.450    1.540
212 1   -9.530   -0.670    2.660
213 1  -10.500   -0.230    2.900
214 1   -9.120   -1.630    3.830
215 1   -8.230   -2.120    3.450
216 1   -8.860   -1.120    5.230
217 1   -9.760   -0.630    5.610
218 1   -8.600   -1.950    5.890
219 1   -8.040   -0.400    5.210
220 1   -9.700   -3.070    3.680
221 1   -9.340   -3.510    2.760
222 1   -9.380   -3.680    4.530
223 1  -10.790   -3.020    3.660
224 1   -9.000    0.760    2.840
225 1   -7.800    1.020    2.510
226 1   -9.790    1.570    3.510
227 1  -10.760    1.360    3.670
228 1   -9.260    2.840    4.060
229 1   -8.240    2.990    3.710
230 1  -10.130    4.020    3.600
231 1   -9.900    4.200    2.550
232 1  -11.170    3.720    3.710
233 1   -9.890    5.240    4.360
234 1  -10.460    5.940    4.020
235 1   -9.290    2.700    5.590
236 1  -10.320    2.270    6.160
237 1   -8.190    3.100    6.220
238 1   -7.360    3.310    5.680
239 1   -8.120    3.230    7.680
240 1   -8.830    2.550    8.150
241 1   -6.690    2.890    8.180
242 1   -6.040    3.630    7.720
243 1   -6.650    3.000    9.270
244 1   -6.220    1.470    7.790
245 1   -6.060    1.430    6.710
246 1   -4.910    1.120    8.520
247 1   -5.070    1.150    9.600
248 1   -4.590    0.120    8.230
249 1   -4.140    1.840    8.240
250 1   -7.320    0.420    8.100
251 1   -8.220    0.660    7.530
252 1   -6.960   -0.570    7.810
253 1   -7.540    0.430    9.160
254 1   -8.480    4.690    8.050
255 1   -7.850    5.650    7.530
256 1   -9.480    4.800    8.880
257 1   -9.920    3.950    9.190
258 1  -10.090    6.080    9.260
259 1   -9.510    6.890    8.830
260 1  -11.550    6.190    8.760
261 1  -11.580    5.930    7.700
262 1  -12.150    5.470    9.320
263 1  -12.160    7.580    8.940
264 1  -12.440    7.990   10.100
265 1  -12.330    8.290    7.830
266 1  -12.730    9.220    7.900
267 1  -12.060    7.910    6.940
268 1   -9.960    6.300   10.780
269 1  -10.350    5.430   11.620
270 1   -9.440    7.500   11.110
271 1   -8.920    8.090   10.480
272 1   -9.500    7.880   12.510
273 1  -10.170    7.200   13.040
274 1   -8.100    7.810   13.180
275 1   -8.190    8.100   14.230
276 1   -7.720    6.790   13.120
277 1   -7.200    8.710   12.510
278 1   -6.330    8.670   12.920
279 1  -10.180    9.230   12.670
280 1   -9.530   10.140   13.240
ITEM: TIMESTEP
1
ITEM: NUMBER OF ATOMS
280
ITEM: BOX BOUNDS pp pp pp
-18.82000160217285 -3.8200016021728516
-7.7900004386901855 7.2099995613098145
-15.24000072479248 -0.24000072479248047
ITEM: ATOMS id type xu yu zu
1 1   -1.130    8.220   -5.100
2 1   -1.140    9.230   -5.200
3 1   -0.500    7.970   -4.360
4 1   -2.090    7.900   -5.070
5 1   -0.550    7.640   -6.340
6 1    0.370    7.080   -6.160
7 1   -1.620    6.700   -7.020
8 1   -2.520    7.280   -7.240
9 1   -1.050    6.100   -8.330
10 1   -0.150    5.520   -8.100
11 1   -1.790    5.450   -8.790
12 1   -0.790    6.910   -9.010
13 1   -2.120    5.580   -6.070
14 1   -2.980    5.090   -6.540
15 1   -2.430    6.030   -5.130
16 1   -1.010    4.520   -5.800
17 1   -0.150    5.010   -5.340
18 1   -1.390    3.750   -5.140
19 1   -0.700    4.070   -6.750
20 1   -0.240    8.780   -7.330
21 1   -1.150    9.570   -7.680
22 1    0.990    8.850   -7.770
23 1    1.690    8.200   -7.420
24 1    1.400    9.820   -8.830
25 1    0.710   10.660   -8.920
26 1    2.810   10.360   -8.490
27 1    3.540    9.550   -8.570
28 1    3.190   11.490   -9.480
29 1    2.470   12.300   -9.400
30 1    4.190   11.870   -9.240
31 1    3.190   11.100  -10.500
32 1    2.850   10.870   -7.000
33 1    2.610   10.050   -6.330
34 1    3.840   11.250   -6.770
35 1    2.120   11.670   -6.870
36 1    1.490    9.130  -10.200
37 1    2.070    8.010  -10.310
38 1    0.940    9.780  -11.180
39 1    0.410   10.620  -11.030
40 1    1.090    9.290  -12.540
41 1    0.810   10.090  -13.220
42 1    2.140    9.030  -12.690
43 1    0.220    8.050  -12.820
44 1    0.650    7.230  -13.680
45 1   -0.900    7.840  -12.050
46 1   -1.180    8.520  -11.360
47 1   -1.730    6.630  -12.210
48 1   -1.190    5.910  -12.830
49 1   -1.910    6.190  -11.230
50 1   -3.070    6.960  -12.870
51 1   -3.190    8.000  -13.570
52 1   -4.090    6.160  -12.640
53 1   -3.970    5.340  -12.050
54 1   -5.400    6.390  -13.250
55 1   -5.500    7.440  -13.540
56 1   -5.530    5.510  -14.540
57 1   -6.500    5.730  -14.990
58 1   -4.740    5.810  -15.240
59 1   -5.420    3.990  -14.260
60 1   -6.530    3.160  -14.150
61 1   -7.530    3.570  -14.270
62 1   -6.360    1.790  -13.880
63 1   -7.210    1.130  -13.820
64 1   -5.060    1.280  -13.760
65 1   -4.780   -0.100  -13.470
66 1   -5.580   -0.620  -13.370
67 1   -3.970    2.120  -13.860
68 1   -2.960    1.720  -13.750
69 1   -4.160    3.470  -14.120
70 1   -3.300    4.130  -14.210
71 1   -6.460    6.080  -12.220
72 1   -6.140    5.520  -11.160
73 1   -7.620    6.570  -12.470
74 1   -7.780    7.050  -13.340
75 1   -8.770    6.350  -11.580
76 1   -8.550    6.580  -10.540
77 1   -9.930    7.260  -12.050
78 1  -10.140    7.040  -13.100
79 1  -11.210    7.020  -11.210
80 1  -11.000    7.240  -10.160
81 1  -12.000    7.670  -11.570
82 1  -11.520    5.980  -11.310
83 1   -9.510    8.580  -11.960
84 1  -10.210    9.160  -12.250
85 1   -9.290    4.930  -11.740
86 1   -9.550    4.470  -12.890
87 1   -9.170    4.190  -10.690
88 1   -9.040    4.580   -9.770
89 1   -9.400    2.760  -10.810
90 1   -8.610    2.270  -11.380
91 1   -9.410    2.180   -9.390
92 1  -10.120    2.740   -8.780
93 1   -9.700    1.130   -9.430
94 1   -7.840    2.370   -8.510
95 1  -10.810    2.470  -11.330
96 1  -10.980    1.450  -12.020
97 1  -11.810    3.210  -10.880
98 1  -11.600    4.030  -10.330
99 1  -13.220    2.880  -11.130
100 1  -13.780    3.790  -11.380
101 1  -13.300    2.170  -11.950
102 1  -13.810    2.260   -9.870
103 1  -13.070    1.540   -9.150
104 1  -15.050    2.670   -9.530
105 1  -15.530    3.340  -10.110
106 1  -15.660    2.280   -8.240
107 1  -14.970    2.670   -7.480
108 1  -17.040    2.970   -8.060
109 1  -17.740    2.580   -8.800
110 1  -17.420    2.760   -7.060
111 1  -16.930    4.040   -8.190
112 1  -15.710    0.760   -8.020
113 1  -16.200   -0.010   -8.890
114 1  -15.150    0.320   -6.880
115 1  -14.650    1.010   -6.340
116 1  -15.160   -1.050   -6.400
117 1  -14.540   -1.120   -5.500
118 1  -16.570   -1.510   -6.060
119 1  -17.130   -1.560   -6.990
120 1  -16.580   -2.490   -5.580
121 1  -17.260   -0.500   -5.120
122 1  -16.840   -0.300   -3.940
123 1  -18.310    0.080   -5.610
124 1  -18.820    0.750   -5.050
125 1  -18.620   -0.160   -6.540
126 1  -14.540   -1.970   -7.430
127 1  -14.680   -3.210   -7.290
128 1  -13.660   -1.410   -8.270
129 1  -13.550   -0.420   -8.450
130 1  -12.830   -2.360   -9.070
131 1  -13.440   -3.210   -9.360
132 1  -12.280   -1.680  -10.340
133 1  -11.780   -2.440  -10.930
134 1  -13.370   -1.010  -11.180
135 1  -13.880   -0.250  -10.580
136 1  -12.930   -0.550  -12.060
137 1  -14.100   -1.770  -11.490
138 1  -11.340   -0.670   -9.970
139 1  -11.000   -0.250  -10.770
140 1  -11.660   -3.000   -8.300
141 1  -11.000   -3.920   -8.840
142 1  -11.370   -2.560   -7.080
143 1  -11.900   -1.790   -6.700
144 1  -10.280   -3.140   -6.260
145 1   -9.860   -4.070   -6.650
146 1   -9.130   -2.120   -6.030
147 1   -9.490   -1.310   -5.410
148 1   -7.930   -2.800   -5.330
149 1   -7.560   -3.620   -5.950
150 1   -7.130   -2.080   -5.180
151 1   -8.250   -3.200   -4.360
152 1   -8.690   -1.360   -7.310
153 1   -9.530   -0.790   -7.710
154 1   -7.880   -0.670   -7.060
155 1   -8.340   -2.070   -8.060
156 1  -10.810   -3.590   -4.880
157 1  -10.840   -2.780   -3.940
158 1  -11.600   -4.640   -4.870
159 1  -11.580   -5.770   -5.840
160 1  -10.590   -6.230   -5.800
161 1  -11.760   -5.360   -6.830
162 1  -12.710   -6.740   -5.380
163 1  -12.250   -7.700   -5.120
164 1  -13.390   -6.890   -6.220
165 1  -13.440   -6.130   -4.190
166 1  -13.430   -6.850   -3.370
167 1  -14.470   -5.840   -4.400
168 1  -12.620   -4.860   -3.790
169 1  -13.220   -3.960   -3.710
170 1  -11.960   -5.170   -2.440
171 1  -12.690   -5.200   -1.430
172 1  -10.660   -5.450   -2.410
173 1  -10.130   -5.450   -3.270
174 1   -9.950   -5.770   -1.160
175 1  -10.650   -6.200   -0.450
176 1   -8.800   -6.780   -1.380
177 1   -8.150   -6.750   -0.510
178 1   -9.190   -7.790   -1.500
179 1   -7.980   -6.400   -2.640
180 1   -6.940   -5.490   -2.540
181 1   -6.700   -5.070   -1.560
182 1   -6.200   -5.100   -3.670
183 1   -5.390   -4.380   -3.590
184 1   -6.520   -5.670   -4.920
185 1   -5.770   -5.320   -6.090
186 1   -5.070   -4.680   -5.910
187 1   -7.590   -6.580   -5.020
188 1   -7.860   -7.000   -5.990
189 1   -8.320   -6.940   -3.880
190 1   -9.150   -7.640   -3.960
191 1   -9.350   -4.500   -0.560
192 1   -8.730   -4.610    0.550
193 1   -9.470   -3.380   -1.330
194 1   -9.890   -3.380   -2.240
195 1   -8.840   -2.110   -0.840
196 1   -7.820   -2.340   -0.510
197 1   -8.770   -0.990   -1.920
198 1   -8.090   -1.330   -2.700
199 1   -9.770   -0.880   -2.330
200 1   -8.280    0.400   -1.370
201 1   -8.580    1.040   -2.200
202 1   -8.760    0.750   -0.450
203 1   -6.740    0.510   -1.190
204 1   -6.210    1.090   -0.170
205 1   -6.040    0.160   -2.250
206 1   -5.030    0.200   -2.220
207 1   -6.510   -0.150   -3.090
208 1   -9.580   -1.640    0.420
209 1  -10.810   -1.400    0.310
210 1   -8.860   -1.290    1.490
211 1   -7.860   -1.450    1.540
212 1   -9.530   -0.670    2.660
213 1  -10.500   -0.230    2.900
214 1   -9.120   -1.630    3.830
215 1   -8.230   -2.120    3.450
216 1   -8.860   -1.120    5.230
217 1   -9.760   -0.630    5.610
218 1   -8.600   -1.950    5.890
219 1   -8.040   -0.400    5.210
220 1   -9.700   -3.070    3.680
221 1   -9.340   -3.510    2.760
222 1   -9.380   -3.680    4.530
223 1  -10.790   -3.020    3.660
224 1   -9.000    0.760    2.840
225 1   -7.800    1.020    2.510
226 1   -9.790    1.570    3.510
227 1  -10.760    1.360    3.670
228 1   -9.260    2.840    4.060
229 1   -8.240    2.990    3.710
230 1  -10.130    4.020    3.600
231 1   -9.900    4.200    2.550
232 1  -11.170    3.720    3.710
233 1   -9.890    5.240    4.360
234 1  -10.460    5.940    4.020
235 1   -9.290    2.700    5.590
236 1  -10.320    2.270    6.160
237 1   -8.190    3.100    6.220
238 1   -7.360    3.310    5.680
239 1   -8.120    3.230    7.680
240 1   -8.830    2.550    8.150
241 1   -6.690    2.890    8.180
242 1   -6.040    3.630    7.720
243 1   -6.650    3.000    9.270
244 1   -6.220    1.470    7.790
245 1   -6.060    1.430    6.710
246 1   -4.910    1.120    8.520
247 1   -5.070    1.150    9.600
248 1   -4.590    0.120    8.230
249 1   -4.140    1.840    8.240
250 1   -7.320    0.420    8.100
251 1   -8.220    0.660    7.530
252 1   -6.960   -0.570    7.810
253 1   -7.540    0.430    9.160
254 1   -8.480    4.690    8.050
255 1   -7.850    5.650    7.530
256 1   -9.480    4.800    8.880
257 1   -9.920    3.950    9.190
258 1  -10.090    6.080    9.260
259 1   -9.510    6.890    8.830
260 1  -11.550    6.190    8.760
261 1  -11.580    5.930    7.700
262 1  -12.150    5.470    9.320
263 1  -12.160    7.580    8.940
264 1  -12.440    7.990   10.100
265 1  -12.330    8.290    7.830
266 1  -12.730    9.220    7.900
267 1  -12.060    7.910    6.940
268 1   -9.960    6.300   10.780
269 1  -10.350    5.430   11.620
270 1   -9.440    7.500   11.110
271 1   -8.920    8.090   10.480
272 1   -9.500    7.880   12.510
273 1  -10.170    7.200   13.040
274 1   -8.100    7.810   13.180
275 1   -8.190    8.100   14.230
276 1   -7.720    6.790   13.120
277 1   -7.200    8.710   12.510
278 1   -6.330    8.670   12.920
279 1  -10.180    9.230   12.670
280 1   -9.530   10.140   13.240
